Perak karbonat
{{Chembox
| verifiedrevid = 464390892
| ImageFile = Silver_carbonate.jpg
| ImageFile_Ref = {{chemboximage|correct|??}}
| ImageSize = 200px
| ImageName = Sample of microcrystaline silver carbonate
| IUPACName = Perak(I) karbonat
| Section1 = {{Chembox Identifiers
|  CASNo = 534-16-7
|  CASNo_Ref = {{cascite|correct|CAS}}
|  PubChem = 92796
|  PubChem_Ref = {{Pubchemcite|correct|Pubchem}}
|  ChemSpiderID = 83768
|  ChemSpiderID_Ref = {{chemspidercite|correct|chemspider}}
|  EINECS = 208-590-3
|  MeSHName = silver+carbonate
|  SMILES = [Ag]OC(=O)O[Ag]
|  StdInChI = 1S/CH2O3.2Ag/c2-1(3)4;;/h(H2,2,3,4);;/q;2*+1/p-2
|  StdInChI_Ref = {{stdinchicite|correct|chemspider}}
|  InChI = 1/CH2O3.2Ag/c2-1(3)4;;/h(H2,2,3,4);;/q;2*+1/p-2
|  StdInChIKey = KQTXIZHBFFWWFW-UHFFFAOYSA-L
|  StdInChIKey_Ref = {{stdinchicite|correct|chemspider}}
|  InChIKey = KQTXIZHBFFWWFW-NUQVWONBAD
}}
| Section2 = {{Chembox Properties
|  Ag=2|C=1|O=3
|  Appearance = Bubuk putih kekuningan
|  Density = 6.077 g cm<sup>-3</sup>
|  MeltingPt = {{convert|210|C|F|K}}<br> dekomposisi
|  Solubility = 0.0032 g/100 ml (20 C)<br> 0.05 g/100 ml (100 C)<ref name=chemister>http://chemister.ru/Database/properties-en.php?dbid=1&id=2374</ref>
|  SolubilityProduct = 8.4610<sup>-12</sup><ref>http://www.ktf-split.hr/periodni/en/abc/kpt.html</ref>
}}
| Section4 = {{Chembox Thermochemistry
|  DeltaHf = -506.1 kJ/mol<ref name=chemister />
|  HeatCapacity = 112.5 J/molK<ref name=chemister />
|  DeltaGf = -437.2 kJ/mol<ref name=chemister />
|  Entropy = 167.4 J/molK<ref name=chemister />
}}
| Section7 = {{Chembox Hazards
|   GHSPictograms = {{GHS07}}<ref name="sigma">{{Sigma-Aldrich|id=179647|name=Silver carbonate|accessdate=2014-05-06}}</ref>
|   GHSSignalWord = Warning
|   HPhrases = {{H-phrases|315|319|335}}<ref name="sigma" />
|   PPhrases = {{P-phrases|261|305+351+338}}<ref name="sigma" />
| RPhrases = {{R36/37/38}}
| SPhrases = {{S26}}, {{S36}}
| EUClass = {{Hazchem Xi}}
|  NFPA-F = 0
|  NFPA-H = 1
|  NFPA-R = 0
}}
}}

'''Perak karbonat''' adalah [[ikatan kimia]] dengan formula [[perak|Ag<sub>2</sub>]][[karbon|C]][[oksigen|O<sub>3</sub>]]. Warnanya kuning tetapi pada beberapa sampel terlihat berwarna keabu-abuan karena keberadaan elemen perak didalamnya. Sedikit larut dalam air seperti [[metal transisi]] [[karbonat]] yang lain. Pada titik cair dapat terdekomposisi menjadi [[karbon dioksida]] dan [[perak oksida]].

==Pembuatan==
Perak karbonat dapat dibuat dengan mencampur larutan [[natrium karbonat]] dengan [[perak nitrat]]. Ia dapat bereaksi dengan [[ammonia]] membentuk [[perak fulminat]] yang mudah meledak. Dengan [[asam florida]] membentuk [[perak(I) florida]]:
:Ag<sub>2</sub>CO<sub>3</sub> + 2 HF  2 AgF + H<sub>2</sub>CO<sub>3</sub>

==Kegunaan==
Prinsipnya untuk produksi bubuk perak untuk digunakan dalam [[mikroelektronika]]. Dapat direduksi dengan [[formaldehida]] membentuk [[metal alkali]] bebas perak:<ref name=Ull> Andreas Brumby et al. "Silver, Silver Compounds, and Silver Alloys" in Ullmann's Encyclopedia of Industrial Chemistry, Wiley-VCH, Weinheim, 2008. {{DOI|10.1002/14356007.a24_107.pub2}}</ref>
:Ag<sub>2</sub>CO<sub>3</sub> + CH<sub>2</sub>O  Ag + CO<sub>2</sub> + H<sub>2</sub>

Perak karbonat digunakan sebagai [[reagen]] dalam sintesis organik seperti reaksi substitusi glikosil halida dengan [[alkohol]] menjadi [[glikosida]] pada reaksi Koenigs-Knorr. Dapat menghapus [[asam sulfida]] dan belerang merkaptan dari minyak [[hidrokarbon]]. Dapat menghapus ion [[klorida]] yang larut dalam air menjadi [[perak klorida]].

==Keamanan==
Dapat menyebabkan iritasi. Hindari menghirup debunya.

==Referensi==
{{reflist}}

==Pranala luar==
{{Commons category|Silver carbonate}}
{{Senyawa karbonat}}

[[Kategori:Senyawa perak]]